TITLE = "Tri Element"
VARIABLES = "x","y","z"
ZONE T="Tri" N=3 E=1 DATAPACKING=POINT ZONETYPE=FETRIANGLE
-1 -0.5774 0
 1 -0.5774 0
 0 1.1547  0
1 2 3 
